 Job started on host WIN
 at Sun Oct 11 15:58:07 2020

 +-------------------------------------------------+
 |                                                 |
 |      CCC   AA    SSS  TTTTT  EEEEE  PPPP        |
 |     C     A  A  S       T    E      P   P       |
 |     C     AAAA   SS     T    EEE    PPPP        |
 |     C     A  A     S    T    E      P           |
 |      CCC  A  A  SSS     T    EEEEE  P           |
 |                                                 |
 +-------------------------------------------------+
 |                                                 |
 | Welcome to Materials Studio CASTEP version 8.0  |
 | Ab Initio Total Energy Program                  |
 |                                                 |
 | Authors:                                        |
 | M. Segall, M. Probert, C. Pickard, P. Hasnip,   |
 | S. Clark, K. Refson, J. R. Yates, M. Payne      |
 |                                                 |
 | Contributors:                                   |
 | P. Lindan, P. Haynes, J. White, V. Milman,      |
 | N. Govind, M. Gibson, P. Tulip, V. Cocula,      |
 | B. Montanari, D. Quigley, M. Glover,            |
 | L. Bernasconi, A. Perlov, M. Plummer,           |
 | E. McNellis, J. Meyer, J. Gale, D. Jochym       |
 | J. Aarons, B. Walker, R. Gillen, D. Jones       |
 | T. Green                                        |
 |                                                 |
 | Copyright (c) 2000 - 2014                       |
 |                                                 |
 | Please cite                                     |
 |                                                 |
 |     "First principles methods using CASTEP"     |
 |                                                 |
 |         Zeitschrift fuer Kristallographie       |
 |           220(5-6) pp. 567-570 (2005)           |
 |                                                 |
 | S. J. Clark, M. D. Segall, C. J. Pickard,       |
 | P. J. Hasnip, M. J. Probert, K. Refson,         |
 | M. C. Payne                                     |
 |                                                 |
 |       in all publications arising from          |
 |              your use of CASTEP                 |
 |                                                 |
 +-------------------------------------------------+
 
 
 This version was compiled for x86_64-windows-msvc2008 on Dec 04 2014
 Code version:    6546
 Intel(R) Math Kernel Library Version 11.1.2 
 Fundamental constants values: CODATA 2010
 
License checkout of MS_castep successful
 
 +---------------------------------------------------+
 |                                                   |
 |  Using DFT-SEDC - the DFT Semi-Empirical          |
 |  Dispersion interaction Correction module         |
 |  Copyright (c) 2008 Erik McNellis and Joerg Meyer |
 |  Fritz-Haber-Institut der MPG. Distributed under  |
 |  the GNU Lesser General Public License (LGPL).    |
 |                                                   |
 | Please cite the following publications in all     |
 | work arising from your use of CASTEP SEDC.        |
 |                                                   |
 | Erik R. McNellis, Joerg Meyer, and Karsten Reuter |
 | Phys. Rev. B 80, 205414 (2009)                    |
 +---------------------------------------------------+
 
 
 Pseudo atomic calculation performed for H 1s1
 
 Converged in 13 iterations to a total energy of -12.4751 eV
 
 
 Pseudo atomic calculation performed for C 2s2 2p2
 
 Converged in 18 iterations to a total energy of -145.7148 eV
 
 Calculation parallelised over 2 processes.
 Data is distributed by k-point(2-way)

 ************************************ Title ************************************
 CASTEP calculation from Materials Studio

 ***************************** General Parameters ******************************
  
 output verbosity                               : normal  (1)
 write checkpoint data to                       : HC.check
 type of calculation                            : single point energy
 stress calculation                             : off
 density difference calculation                 : off
 electron localisation func (ELF) calculation   : off
 Hirshfeld analysis                             : on
 unlimited duration calculation
 timing information                             : on
 memory usage estimate                          : on
 write final potential to formatted file        : off
 write final density to formatted file          : off
 write BibTeX reference list                    : on
 checkpoint writing                             : both castep_bin and check files
  
 output         length unit                     : A
 output           mass unit                     : amu
 output           time unit                     : ps
 output         charge unit                     : e
 output           spin unit                     : hbar/2
 output         energy unit                     : eV
 output          force unit                     : eV/A
 output       velocity unit                     : A/ps
 output       pressure unit                     : GPa
 output     inv_length unit                     : 1/A
 output      frequency unit                     : cm-1
 output force constant unit                     : eV/A**2
 output         volume unit                     : A**3
 output   IR intensity unit                     : (D/A)**2/amu
 output         dipole unit                     : D
 output         efield unit                     : eV/A/e
 output        entropy unit                     : J/mol/K
  
 wavefunctions paging                           : none
 random number generator seed                   : randomised (155809723)
 data distribution                              : optimal for this architecture
 optimization strategy                          : balance speed and memory

 *********************** Exchange-Correlation Parameters ***********************
  
 using functional                               : Perdew Burke Ernzerhof
 Divergence correction                          : off
 relativistic treatment                         : Koelling-Harmon
 DFT+D: Semi-empirical dispersion correction    : on
 SEDC with                                      : G06 correction scheme

 ************************* Pseudopotential Parameters **************************
  
 pseudopotential representation                 : reciprocal space
 <beta|phi> representation                      : reciprocal space

 **************************** Basis Set Parameters *****************************
  
 plane wave basis set cut-off                   :   680.0000   eV
 size of standard grid                          :     1.7500
 size of   fine   grid                          :     2.1000
 size of   fine   gmax                          :    28.0551   1/A
 largest prime factor in FFT                    :          5
 finite basis set correction                    : none

 **************************** Electronic Parameters ****************************
  
 number of  electrons                           :  10.00    
 net charge of system                           :  0.000    
 net spin   of system                           :  0.000    
 number of  up  spins                           :  5.000    
 number of down spins                           :  5.000    
 treating system as non-spin-polarized
 number of bands                                :          5

 ********************* Electronic Minimization Parameters **********************
  
 Method: Treating system as non-metallic,
         and number of  SD  steps               :          1
         and number of  CG  steps               :          4
  
 total energy / atom convergence tol.           : 0.1000E-05   eV
 eigen-energy convergence tolerance             : 0.8000E-06   eV
 max force / atom convergence tol.              : ignored
 convergence tolerance window                   :          3   cycles
 max. number of SCF cycles                      :        100
 periodic dipole correction                     : NONE

 ************************** Density Mixing Parameters **************************
  
 density-mixing scheme                          : Pulay
 max. length of mixing history                  :         20
 charge density mixing amplitude                : 0.5000    
 cut-off energy for mixing                      :  680.0       eV
 charge density mixing g-vector                 :  1.500       1/A

 *********************** Population Analysis Parameters ************************
  
 Population analysis with cutoff                :  3.000       A

 *******************************************************************************
  
 
                           -------------------------------
                                      Unit Cell
                           -------------------------------
        Real Lattice(A)                      Reciprocal Lattice(1/A)
   2.1999643  -1.2701500   0.0000000        2.8560396   0.0000000   0.0000000
   0.0000000   2.5403000   0.0000000        1.4280198   2.4734029   0.0000000
   0.0000000   0.0000000  18.0000000        0.0000000   0.0000000   0.3490659
 
                       Lattice parameters(A)       Cell Angles
                    a =    2.540300          alpha =   90.000000
                    b =    2.540300          beta  =   90.000000
                    c =   18.000000          gamma =  120.000000
 
                       Current cell volume =  100.594249       A**3
 
                           -------------------------------
                                     Cell Contents
                           -------------------------------
                         Total number of ions in cell =    4
                      Total number of species in cell =    2
                        Max number of any one species =    2
 
            xxxxxxxxxxxxxxxxxxxxxxxxxxxxxxxxxxxxxxxxxxxxxxxxxxxxxxxxxxxx
            x  Element    Atom        Fractional coordinates of atoms  x
            x            Number           u          v          w      x
            x----------------------------------------------------------x
            x  H            1         0.666667   0.333333   0.425520   x 
            x  H            2         0.333333   0.666667  -0.425520   x 
            x  C            1         0.666667   0.333333   0.487250   x 
            x  C            2         0.333333   0.666667  -0.487250   x 
            xxxxxxxxxxxxxxxxxxxxxxxxxxxxxxxxxxxxxxxxxxxxxxxxxxxxxxxxxxxx
 
 
                         No user defined ionic velocities
 
                           -------------------------------
                                   Details of Species
                           -------------------------------
 
                               Mass of species in AMU
                                    H    1.0080000
                                    C   12.0109997
 
                          Electric Quadrupole Moment (Barn)
                                    H    0.0028600 Isotope  2
                                    C    0.0332700 Isotope 11
 
                          Files used for pseudopotentials:
                                    H H_00PBE_OP.recpot
                                    C C_00PBE_OP.recpot
 
                           -------------------------------
                              k-Points For BZ Sampling
                           -------------------------------
                       MP grid size for SCF calculation is  9  9  1
                            with an offset of   0.000  0.000  0.000
                       Number of kpoints used =            12
 
                           -------------------------------
                               Symmetry and Constraints
                           -------------------------------
 
                      Maximum deviation from symmetry = 0.253827E-14     ANG
 
                      Number of symmetry operations   =          12
         There are no ionic constraints specified or generated for this cell
                      Point group of crystal =    20: D3d, -3m, -3 2/m
                      Space group of crystal =   164: P-3m1, -P 3 2"
 
             Set iprint > 1 for details on symmetry rotations/translations
 
                         Centre of mass is NOT constrained
 
                         Number of cell constraints= 4
                         Cell constraints are:  1 1 3 0 0 0
 
                         External pressure/stress (GPa)
                          0.00000   0.00000   0.00000
                                    0.00000   0.00000
                                              0.00000
 
                                --------------------
                                  DFT-D parameters
                                --------------------
 
                          Dispersion-correction scheme : G06                                                                             
                        Parameter s6 :   0.750000 (default)
                        Parameter d :  20.000000 (default)
 
        xxxxxxxxxxxxxxxxxxxxxxxxxxxxxxxxxxxxxxxxxxxxxxxxxxxxxxxxxxxxxxxxxxxx
        x              Atomic DFT-D parameters                             x
        x  Species      C6            R0                                   x
        x               eV A^6        Ang                                  x
        x------------------------------------------------------------------x
        x  H             1.4510       1.0010   (default)                   x
        x  C            18.1375       1.4520   (default)                   x
        xxxxxxxxxxxxxxxxxxxxxxxxxxxxxxxxxxxxxxxxxxxxxxxxxxxxxxxxxxxxxxxxxxxx
 
  
+---------------- MEMORY AND SCRATCH DISK ESTIMATES PER PROCESS --------------+
|                                                     Memory          Disk    |
| Model and support data                               59.1 MB         0.0 MB |
| Electronic energy minimisation requirements          11.5 MB         0.0 MB |
|                                               ----------------------------- |
| Approx. total storage required per process           70.6 MB         0.0 MB |
|                                                                             |
| Requirements will fluctuate during execution and may exceed these estimates |
+-----------------------------------------------------------------------------+
------------------------------------------------------------------------ <-- SCF
SCF loop      Energy                           Energy gain       Timer   <-- SCF
                                               per atom          (sec)   <-- SCF
------------------------------------------------------------------------ <-- SCF
Initial  -5.54744825E+001                                          0.51  <-- SCF
      1  -2.87847360E+002                    5.80932193E+001       1.05  <-- SCF
      2  -3.41397362E+002                    1.33875004E+001       1.48  <-- SCF
      3  -3.43672287E+002                    5.68731427E-001       1.90  <-- SCF
      4  -3.42337992E+002                   -3.33573892E-001       2.40  <-- SCF
      5  -3.41910592E+002                   -1.06849938E-001       3.01  <-- SCF
      6  -3.41863048E+002                   -1.18859138E-002       3.81  <-- SCF
      7  -3.41856257E+002                   -1.69777650E-003       4.31  <-- SCF
      8  -3.41832795E+002                   -5.86547563E-003       4.76  <-- SCF
      9  -3.41828718E+002                   -1.01922076E-003       5.29  <-- SCF
     10  -3.41823390E+002                   -1.33202254E-003       5.80  <-- SCF
     11  -3.41824376E+002                    2.46299598E-004       6.30  <-- SCF
     12  -3.41824280E+002                   -2.39074035E-005       6.80  <-- SCF
     13  -3.41824034E+002                   -6.15552303E-005       7.27  <-- SCF
     14  -3.41824038E+002                    1.18485491E-006       7.72  <-- SCF
     15  -3.41824898E+002                    2.14842015E-004       8.21  <-- SCF
     16  -3.41825545E+002                    1.61726704E-004       8.70  <-- SCF
     17  -3.41825698E+002                    3.84371240E-005       9.24  <-- SCF
     18  -3.41825757E+002                    1.46689923E-005       9.61  <-- SCF
     19  -3.41825766E+002                    2.20463146E-006       9.94  <-- SCF
     20  -3.41825769E+002                    8.15563393E-007      10.28  <-- SCF
     21  -3.41825770E+002                    2.29547037E-007      10.64  <-- SCF
     22  -3.41825770E+002                    1.27183690E-008      10.97  <-- SCF
------------------------------------------------------------------------ <-- SCF
 
Final energy =  -341.8257701896     eV
(energy not corrected for finite basis set)
 

Dispersion corrected final energy* =  -342.1174684821     eV

 * not corrected for finite basis set


Writing analysis data to HC.castep_bin

Writing model to HC.check
 
 ***************** Symmetrised Forces *****************
 *                                                    *
 *            Cartesian components (eV/A)             *
 * -------------------------------------------------- *
 *                   x            y            z      *
 *                                                    *
 * H         1     -0.00000      0.00000      0.03457 *
 * H         2      0.00000      0.00000     -0.03457 *
 * C         1      0.00000     -0.00000     -0.12434 *
 * C         2      0.00000      0.00000      0.12434 *
 *                                                    *
 ******************************************************
 
 Pseudo atomic calculation performed for H 1s1
 
 Converged in 13 iterations to a total energy of -12.4751 eV
 
 
 Pseudo atomic calculation performed for C 2s2 2p2
 
 Converged in 18 iterations to a total energy of -145.7148 eV
 
Charge spilling parameter for spin component 1 = 0.85%
 
     Atomic Populations (Mulliken)
     -----------------------------
Species   Ion     s      p      d      f     Total  Charge (e)
==============================================================
  H        1     0.79   0.00   0.00   0.00   0.79     0.21
  H        2     0.79   0.00   0.00   0.00   0.79     0.21
  C        1     1.16   3.05   0.00   0.00   4.21    -0.21
  C        2     1.16   3.05   0.00   0.00   4.21    -0.21
==============================================================
 
            Bond              Population      Length (A)
============================================================
          H 2 -- C 2               0.66        1.11114
          H 1 -- C 1               0.66        1.11114
          C 1 -- C 2               2.39        1.53679
          H 2 -- C 1              -0.41        2.14858
          H 1 -- C 2              -0.41        2.14858
============================================================
 
 
     Hirshfeld Analysis
     ------------------
Species   Ion     Hirshfeld Charge (e)  Spin (hbar/2)
===================================================
  H        1                 0.03        0.00
  H        2                 0.03        0.00
  C        1                -0.03        0.00
  C        2                -0.03        0.00
===================================================
 

Writing analysis data to HC.castep_bin

Writing model to HC.check
 
 A BibTeX formatted list of references used in this run has been written to 
 HC.bib
 
Initialisation time =      0.28 s
Calculation time    =     11.31 s
Finalisation time   =      0.33 s
Total time          =     11.92 s
  
Overall parallel efficiency rating: Excellent (96%)                             
  
Data was distributed by:-
k-point (2-way); efficiency rating: Excellent (97%)                             
  
Parallel notes:
1) Calculation only took 11.7 s, so efficiency estimates may be inaccurate.     
